Title: ** sch_path: /home/exotic/desktop/asic_adc/xschem/vth_sch/pre_layout/analog_bench.sch
Date: Wed Jan 31 04:36:00  2024
Plotname: DC transfer characteristic
Flags: real
No. Variables: 1796
No. Points: 181     
Variables:
	0	v(v-sweep)	voltage
	1	v(vdd)	voltage
	2	v(vin)	voltage
	3	v(v_lh)	voltage
	4	v(v_ll)	voltage
	5	v(x1._49_/a_75_199#)	voltage
	6	v(x1._21_)	voltage
	7	v(x1._49_/a_208_47#)	voltage
	8	v(x1._19_)	voltage
	9	v(x1._49_/a_315_47#)	voltage
	10	v(x1._02_)	voltage
	11	v(x1._20_)	voltage
	12	v(x1.net7)	voltage
	13	v(x1._49_/a_544_297#)	voltage
	14	v(x1._49_/a_201_297#)	voltage
	15	v(x1.net17)	voltage
	16	v(x1.net11)	voltage
	17	v(x1._48_/a_27_47#)	voltage
	18	v(x1._07_)	voltage
	19	v(x1._48_/a_181_47#)	voltage
	20	v(x1._48_/a_109_47#)	voltage
	21	v(x1._47_/a_81_21#)	voltage
	22	v(x1._17_)	voltage
	23	v(x1._47_/a_299_297#)	voltage
	24	v(x1.net5)	voltage
	25	v(x1._12_)	voltage
	26	v(x1._47_/a_384_47#)	voltage
	27	v(x1.th02_0/m1_983_133#)	voltage
	28	v(x1.th15_0/vin)	voltage
	29	v(x1.th02_0/m1_571_144#)	voltage
	30	v(p[1])	voltage
	31	v(x1._04_)	voltage
	32	v(x1._03_)	voltage
	33	v(x1._29_/a_29_53#)	voltage
	34	v(x1._29_/a_111_297#)	voltage
	35	v(x1.net12)	voltage
	36	v(x1._29_/a_183_297#)	voltage
	37	v(x1.net13)	voltage
	38	v(x1._00_)	voltage
	39	v(x1._28_/a_109_297#)	voltage
	40	v(x1._01_)	voltage
	41	v(x1._45_/a_465_47#)	voltage
	42	v(x1._45_/a_27_47#)	voltage
	43	v(x1.net16)	voltage
	44	v(x1._45_/a_109_297#)	voltage
	45	v(x1._45_/a_193_297#)	voltage
	46	v(x1._13_)	voltage
	47	v(x1._45_/a_205_47#)	voltage
	48	v(x1._09_)	voltage
	49	v(x1._18_)	voltage
	50	v(x1._44_/a_93_21#)	voltage
	51	v(x1.net14)	voltage
	52	v(x1._44_/a_346_47#)	voltage
	53	v(x1._44_/a_250_297#)	voltage
	54	v(x1._44_/a_584_47#)	voltage
	55	v(x1.net2)	voltage
	56	v(x1._44_/a_256_47#)	voltage
	57	v(x1._15_)	voltage
	58	v(x1._14_)	voltage
	59	v(x1._27_/a_27_297#)	voltage
	60	v(x1.net15)	voltage
	61	v(x1._27_/a_277_297#)	voltage
	62	v(x1._27_/a_205_297#)	voltage
	63	v(x1.net3)	voltage
	64	v(x1._27_/a_109_297#)	voltage
	65	v(x1._43_/a_297_47#)	voltage
	66	v(x1._43_/a_27_47#)	voltage
	67	v(x1._43_/a_193_413#)	voltage
	68	v(x1._43_/a_369_47#)	voltage
	69	v(x1._06_)	voltage
	70	v(x1._16_)	voltage
	71	v(x1._43_/a_469_47#)	voltage
	72	v(x1._10_)	voltage
	73	v(x1._26_/a_29_53#)	voltage
	74	v(x1._26_/a_111_297#)	voltage
	75	v(x1.net6)	voltage
	76	v(x1._26_/a_183_297#)	voltage
	77	v(x1.net4)	voltage
	78	v(x1._42_/a_109_93#)	voltage
	79	v(x1._42_/a_209_311#)	voltage
	80	v(x1._42_/a_296_53#)	voltage
	81	v(x1._42_/a_368_53#)	voltage
	82	v(x1.output16/a_27_47#)	voltage
	83	v(b[0])	voltage
	84	v(x1._41_/a_59_75#)	voltage
	85	v(x1._41_/a_145_75#)	voltage
	86	v(x1.output17/a_27_47#)	voltage
	87	v(b[1])	voltage
	88	v(x1._40_/a_191_297#)	voltage
	89	v(x1._40_/a_109_297#)	voltage
	90	v(x1._40_/a_297_297#)	voltage
	91	v(x1.net18)	voltage
	92	v(x1.output18/a_27_47#)	voltage
	93	v(b[2])	voltage
	94	v(x1.th09_0/m1_485_n505#)	voltage
	95	v(x1.th09_0/m1_962_372#)	voltage
	96	v(p[8])	voltage
	97	v(x1.net19)	voltage
	98	v(x1.output19/a_27_47#)	voltage
	99	v(b[3])	voltage
	100	v(x1.th14_0/m1_641_n318#)	voltage
	101	v(x1.th14_0/m1_891_419#)	voltage
	102	v(p[13])	voltage
	103	v(x1.input1/a_75_212#)	voltage
	104	v(x1.net1)	voltage
	105	v(p[0])	voltage
	106	v(x1.th07_0/m1_808_n892#)	voltage
	107	v(p[6])	voltage
	108	v(p[10])	voltage
	109	v(x1.input2/a_27_47#)	voltage
	110	v(p[11])	voltage
	111	v(x1.input3/a_27_47#)	voltage
	112	v(x1.th12_0/m1_394_n856#)	voltage
	113	v(x1.th12_0/m1_529_n42#)	voltage
	114	v(x1.input4/a_75_212#)	voltage
	115	v(p[12])	voltage
	116	v(x1.th05_0/m1_752_n794#)	voltage
	117	v(p[4])	voltage
	118	v(x1.input5/a_558_47#)	voltage
	119	v(x1.input5/a_381_47#)	voltage
	120	v(x1.input5/a_841_47#)	voltage
	121	v(x1.input5/a_664_47#)	voltage
	122	v(x1.input5/a_62_47#)	voltage
	123	v(p[14])	voltage
	124	v(x1.input6/a_27_47#)	voltage
	125	v(x1.th10_0/m1_502_n495#)	voltage
	126	v(x1.th10_0/m1_536_174#)	voltage
	127	v(p[9])	voltage
	128	v(x1.input7/a_27_47#)	voltage
	129	v(x1.input10/a_27_47#)	voltage
	130	v(x1.net10)	voltage
	131	v(x1.th03_0/m1_890_n844#)	voltage
	132	v(x1.th03_0/m1_638_n591#)	voltage
	133	v(p[2])	voltage
	134	v(x1.input8/a_27_47#)	voltage
	135	v(x1.net8)	voltage
	136	v(p[5])	voltage
	137	v(x1.input11/a_27_47#)	voltage
	138	v(x1._39_/a_377_297#)	voltage
	139	v(x1._39_/a_47_47#)	voltage
	140	v(x1._39_/a_129_47#)	voltage
	141	v(x1._39_/a_285_47#)	voltage
	142	v(x1.input9/a_75_212#)	voltage
	143	v(x1.net9)	voltage
	144	v(p[3])	voltage
	145	v(x1.input12/a_27_47#)	voltage
	146	v(x1._55_/a_80_21#)	voltage
	147	v(x1._22_)	voltage
	148	v(x1._55_/a_472_297#)	voltage
	149	v(x1._55_/a_217_297#)	voltage
	150	v(x1._55_/a_300_47#)	voltage
	151	v(x1._38_/a_27_47#)	voltage
	152	v(x1._38_/a_197_47#)	voltage
	153	v(x1._38_/a_109_47#)	voltage
	154	v(x1._38_/a_303_47#)	voltage
	155	v(x1._11_)	voltage
	156	v(x1._54_/a_75_212#)	voltage
	157	v(x1._25_)	voltage
	158	v(p[7])	voltage
	159	v(x1.input13/a_27_47#)	voltage
	160	v(x1._37_/a_27_47#)	voltage
	161	v(x1._37_/a_197_47#)	voltage
	162	v(x1._37_/a_109_47#)	voltage
	163	v(x1._37_/a_303_47#)	voltage
	164	v(x1.th01_0/m1_991_n1219#)	voltage
	165	v(x1.th01_0/m1_571_n501#)	voltage
	166	v(x1.input14/a_27_47#)	voltage
	167	v(x1._53_/a_29_53#)	voltage
	168	v(x1._53_/a_111_297#)	voltage
	169	v(x1._24_)	voltage
	170	v(x1._53_/a_183_297#)	voltage
	171	v(x1._36_/a_27_47#)	voltage
	172	v(x1._36_/a_197_47#)	voltage
	173	v(x1._36_/a_109_47#)	voltage
	174	v(x1._36_/a_303_47#)	voltage
	175	v(x1._52_/a_93_21#)	voltage
	176	v(x1._52_/a_346_47#)	voltage
	177	v(x1._52_/a_250_297#)	voltage
	178	v(x1._52_/a_584_47#)	voltage
	179	v(x1._52_/a_256_47#)	voltage
	180	v(x1._23_)	voltage
	181	v(x1.input15/a_27_47#)	voltage
	182	v(x1._35_/a_226_47#)	voltage
	183	v(x1._05_)	voltage
	184	v(x1._35_/a_226_297#)	voltage
	185	v(x1._35_/a_489_413#)	voltage
	186	v(x1._08_)	voltage
	187	v(x1._35_/a_76_199#)	voltage
	188	v(x1._35_/a_556_47#)	voltage
	189	v(x1._34_/a_377_297#)	voltage
	190	v(x1._34_/a_47_47#)	voltage
	191	v(x1._34_/a_129_47#)	voltage
	192	v(x1._34_/a_285_47#)	voltage
	193	v(x1._33_/a_109_93#)	voltage
	194	v(x1._33_/a_209_311#)	voltage
	195	v(x1._33_/a_296_53#)	voltage
	196	v(x1._33_/a_368_53#)	voltage
	197	v(x1._50_/a_343_93#)	voltage
	198	v(x1._50_/a_223_47#)	voltage
	199	v(x1._50_/a_515_93#)	voltage
	200	v(x1._50_/a_429_93#)	voltage
	201	v(x1._50_/a_27_47#)	voltage
	202	v(x1._50_/a_615_93#)	voltage
	203	v(x1._32_/a_27_47#)	voltage
	204	v(x1._32_/a_197_47#)	voltage
	205	v(x1._32_/a_109_47#)	voltage
	206	v(x1._32_/a_303_47#)	voltage
	207	v(x1._31_/a_35_297#)	voltage
	208	v(x1._31_/a_285_297#)	voltage
	209	v(x1._31_/a_285_47#)	voltage
	210	v(x1._31_/a_117_297#)	voltage
	211	v(x1.th15_0/m1_597_n912#)	voltage
	212	v(x1.th15_0/m1_849_n157#)	voltage
	213	v(x1._30_/a_215_297#)	voltage
	214	v(x1._30_/a_109_53#)	voltage
	215	v(x1._30_/a_392_297#)	voltage
	216	v(x1._30_/a_297_297#)	voltage
	217	v(x1._30_/a_465_297#)	voltage
	218	v(x1.th08_0/m1_477_n803#)	voltage
	219	v(x1.th13_0/m1_559_n458#)	voltage
	220	v(x1.th13_0/m1_831_275#)	voltage
	221	v(x1.th06_0/m1_904_n796#)	voltage
	222	v(x1.th11_0/m1_577_n654#)	voltage
	223	v(x1.th11_0/m1_705_187#)	voltage
	224	v(x1.th04_0/m1_892_n998#)	voltage
	225	v(x1.th04_0/m1_620_n488#)	voltage
	226	v(m.x1.xth04_0.xxm4.x0.msky130_fd_pr__nfet_01v8#dbody)	voltage
	227	v(m.x1.xth04_0.xxm4.x0.msky130_fd_pr__nfet_01v8#body)	voltage
	228	v(m.x1.xth04_0.xxm4.x0.msky130_fd_pr__nfet_01v8#sbody)	voltage
	229	v(m.x1.xth04_0.xxm3.x0.msky130_fd_pr__pfet_01v8#dbody)	voltage
	230	v(m.x1.xth04_0.xxm3.x0.msky130_fd_pr__pfet_01v8#body)	voltage
	231	v(m.x1.xth04_0.xxm3.x0.msky130_fd_pr__pfet_01v8#sbody)	voltage
	232	v(m.x1.xth04_0.xxm2.x0.msky130_fd_pr__nfet_01v8#dbody)	voltage
	233	v(m.x1.xth04_0.xxm2.x0.msky130_fd_pr__nfet_01v8#body)	voltage
	234	v(m.x1.xth04_0.xxm2.x0.msky130_fd_pr__nfet_01v8#sbody)	voltage
	235	v(m.x1.xth04_0.xxm1.x0.msky130_fd_pr__pfet_01v8#dbody)	voltage
	236	v(m.x1.xth04_0.xxm1.x0.msky130_fd_pr__pfet_01v8#body)	voltage
	237	v(m.x1.xth04_0.xxm1.x0.msky130_fd_pr__pfet_01v8#sbody)	voltage
	238	v(m.x1.xth04_0.xxm0.x0.msky130_fd_pr__nfet_01v8#dbody)	voltage
	239	v(m.x1.xth04_0.xxm0.x0.msky130_fd_pr__nfet_01v8#body)	voltage
	240	v(m.x1.xth04_0.xxm0.x0.msky130_fd_pr__nfet_01v8#sbody)	voltage
	241	v(m.x1.xphy_edge_row_4_left_12.x1.msky130_fd_pr__nfet_01v8#dbody)	voltage
	242	v(m.x1.xphy_edge_row_4_left_12.x1.msky130_fd_pr__nfet_01v8#body)	voltage
	243	v(m.x1.xphy_edge_row_4_left_12.x1.msky130_fd_pr__nfet_01v8#sbody)	voltage
	244	v(m.x1.xphy_edge_row_4_left_12.x0.msky130_fd_pr__pfet_01v8_hvt#dbody)	voltage
	245	v(m.x1.xphy_edge_row_4_left_12.x0.msky130_fd_pr__pfet_01v8_hvt#body)	voltage
	246	v(m.x1.xphy_edge_row_4_left_12.x0.msky130_fd_pr__pfet_01v8_hvt#sbody)	voltage
	247	v(m.x1.xphy_edge_row_2_right_2.x1.msky130_fd_pr__nfet_01v8#dbody)	voltage
	248	v(m.x1.xphy_edge_row_2_right_2.x1.msky130_fd_pr__nfet_01v8#body)	voltage
	249	v(m.x1.xphy_edge_row_2_right_2.x1.msky130_fd_pr__nfet_01v8#sbody)	voltage
	250	v(m.x1.xphy_edge_row_2_right_2.x0.msky130_fd_pr__pfet_01v8_hvt#dbody)	voltage
	251	v(m.x1.xphy_edge_row_2_right_2.x0.msky130_fd_pr__pfet_01v8_hvt#body)	voltage
	252	v(m.x1.xphy_edge_row_2_right_2.x0.msky130_fd_pr__pfet_01v8_hvt#sbody)	voltage
	253	v(m.x1.xth11_0.xxm4.x0.msky130_fd_pr__nfet_01v8#dbody)	voltage
	254	v(m.x1.xth11_0.xxm4.x0.msky130_fd_pr__nfet_01v8#body)	voltage
	255	v(m.x1.xth11_0.xxm4.x0.msky130_fd_pr__nfet_01v8#sbody)	voltage
	256	v(m.x1.xth11_0.xxm3.x0.msky130_fd_pr__pfet_01v8#dbody)	voltage
	257	v(m.x1.xth11_0.xxm3.x0.msky130_fd_pr__pfet_01v8#body)	voltage
	258	v(m.x1.xth11_0.xxm3.x0.msky130_fd_pr__pfet_01v8#sbody)	voltage
	259	v(m.x1.xth11_0.xxm2.x0.msky130_fd_pr__pfet_01v8#dbody)	voltage
	260	v(m.x1.xth11_0.xxm2.x0.msky130_fd_pr__pfet_01v8#body)	voltage
	261	v(m.x1.xth11_0.xxm2.x0.msky130_fd_pr__pfet_01v8#sbody)	voltage
	262	v(m.x1.xth11_0.xxm1.x0.msky130_fd_pr__nfet_01v8#dbody)	voltage
	263	v(m.x1.xth11_0.xxm1.x0.msky130_fd_pr__nfet_01v8#body)	voltage
	264	v(m.x1.xth11_0.xxm1.x0.msky130_fd_pr__nfet_01v8#sbody)	voltage
	265	v(m.x1.xth11_0.xxm0.x0.msky130_fd_pr__pfet_01v8#dbody)	voltage
	266	v(m.x1.xth11_0.xxm0.x0.msky130_fd_pr__pfet_01v8#body)	voltage
	267	v(m.x1.xth11_0.xxm0.x0.msky130_fd_pr__pfet_01v8#sbody)	voltage
	268	v(m.x1.xfiller_0_3_37.x1.msky130_fd_pr__nfet_01v8#dbody)	voltage
	269	v(m.x1.xfiller_0_3_37.x1.msky130_fd_pr__nfet_01v8#body)	voltage
	270	v(m.x1.xfiller_0_3_37.x1.msky130_fd_pr__nfet_01v8#sbody)	voltage
	271	v(m.x1.xfiller_0_3_37.x0.msky130_fd_pr__pfet_01v8_hvt#dbody)	voltage
	272	v(m.x1.xfiller_0_3_37.x0.msky130_fd_pr__pfet_01v8_hvt#body)	voltage
	273	v(m.x1.xfiller_0_3_37.x0.msky130_fd_pr__pfet_01v8_hvt#sbody)	voltage
	274	v(m.x1.xfiller_0_6_36.x1.msky130_fd_pr__nfet_01v8#dbody)	voltage
	275	v(m.x1.xfiller_0_6_36.x1.msky130_fd_pr__nfet_01v8#body)	voltage
	276	v(m.x1.xfiller_0_6_36.x1.msky130_fd_pr__nfet_01v8#sbody)	voltage
	277	v(m.x1.xfiller_0_6_36.x0.msky130_fd_pr__pfet_01v8_hvt#dbody)	voltage
	278	v(m.x1.xfiller_0_6_36.x0.msky130_fd_pr__pfet_01v8_hvt#body)	voltage
	279	v(m.x1.xfiller_0_6_36.x0.msky130_fd_pr__pfet_01v8_hvt#sbody)	voltage
	280	v(m.x1.xfiller_0_6_25.x1.msky130_fd_pr__nfet_01v8#dbody)	voltage
	281	v(m.x1.xfiller_0_6_25.x1.msky130_fd_pr__nfet_01v8#body)	voltage
	282	v(m.x1.xfiller_0_6_25.x1.msky130_fd_pr__nfet_01v8#sbody)	voltage
	283	v(m.x1.xfiller_0_6_25.x0.msky130_fd_pr__pfet_01v8_hvt#dbody)	voltage
	284	v(m.x1.xfiller_0_6_25.x0.msky130_fd_pr__pfet_01v8_hvt#body)	voltage
	285	v(m.x1.xfiller_0_6_25.x0.msky130_fd_pr__pfet_01v8_hvt#sbody)	voltage
	286	v(m.x1.xth06_0.xxm3.x0.msky130_fd_pr__nfet_01v8#dbody)	voltage
	287	v(m.x1.xth06_0.xxm3.x0.msky130_fd_pr__nfet_01v8#body)	voltage
	288	v(m.x1.xth06_0.xxm3.x0.msky130_fd_pr__nfet_01v8#sbody)	voltage
	289	v(m.x1.xth06_0.xxm2.x0.msky130_fd_pr__pfet_01v8#dbody)	voltage
	290	v(m.x1.xth06_0.xxm2.x0.msky130_fd_pr__pfet_01v8#body)	voltage
	291	v(m.x1.xth06_0.xxm2.x0.msky130_fd_pr__pfet_01v8#sbody)	voltage
	292	v(m.x1.xth06_0.xxm1.x0.msky130_fd_pr__pfet_01v8#dbody)	voltage
	293	v(m.x1.xth06_0.xxm1.x0.msky130_fd_pr__pfet_01v8#body)	voltage
	294	v(m.x1.xth06_0.xxm1.x0.msky130_fd_pr__pfet_01v8#sbody)	voltage
	295	v(m.x1.xth06_0.xxm0.x0.msky130_fd_pr__nfet_01v8#dbody)	voltage
	296	v(m.x1.xth06_0.xxm0.x0.msky130_fd_pr__nfet_01v8#body)	voltage
	297	v(m.x1.xth06_0.xxm0.x0.msky130_fd_pr__nfet_01v8#sbody)	voltage
	298	v(m.x1.xfiller_0_3_13.x1.msky130_fd_pr__nfet_01v8#dbody)	voltage
	299	v(m.x1.xfiller_0_3_13.x1.msky130_fd_pr__nfet_01v8#body)	voltage
	300	v(m.x1.xfiller_0_3_13.x1.msky130_fd_pr__nfet_01v8#sbody)	voltage
	301	v(m.x1.xfiller_0_3_13.x0.msky130_fd_pr__pfet_01v8_hvt#dbody)	voltage
	302	v(m.x1.xfiller_0_3_13.x0.msky130_fd_pr__pfet_01v8_hvt#body)	voltage
	303	v(m.x1.xfiller_0_3_13.x0.msky130_fd_pr__pfet_01v8_hvt#sbody)	voltage
	304	v(m.x1.xth13_0.xxm4.x0.msky130_fd_pr__nfet_01v8#dbody)	voltage
	305	v(m.x1.xth13_0.xxm4.x0.msky130_fd_pr__nfet_01v8#body)	voltage
	306	v(m.x1.xth13_0.xxm4.x0.msky130_fd_pr__nfet_01v8#sbody)	voltage
	307	v(m.x1.xth13_0.xxm3.x0.msky130_fd_pr__pfet_01v8#dbody)	voltage
	308	v(m.x1.xth13_0.xxm3.x0.msky130_fd_pr__pfet_01v8#body)	voltage
	309	v(m.x1.xth13_0.xxm3.x0.msky130_fd_pr__pfet_01v8#sbody)	voltage
	310	v(m.x1.xth13_0.xxm2.x0.msky130_fd_pr__pfet_01v8#dbody)	voltage
	311	v(m.x1.xth13_0.xxm2.x0.msky130_fd_pr__pfet_01v8#body)	voltage
	312	v(m.x1.xth13_0.xxm2.x0.msky130_fd_pr__pfet_01v8#sbody)	voltage
	313	v(m.x1.xth13_0.xxm1.x0.msky130_fd_pr__nfet_01v8#dbody)	voltage
	314	v(m.x1.xth13_0.xxm1.x0.msky130_fd_pr__nfet_01v8#body)	voltage
	315	v(m.x1.xth13_0.xxm1.x0.msky130_fd_pr__nfet_01v8#sbody)	voltage
	316	v(m.x1.xth13_0.xxm0.x0.msky130_fd_pr__pfet_01v8#dbody)	voltage
	317	v(m.x1.xth13_0.xxm0.x0.msky130_fd_pr__pfet_01v8#body)	voltage
	318	v(m.x1.xth13_0.xxm0.x0.msky130_fd_pr__pfet_01v8#sbody)	voltage
	319	v(m.x1.xfiller_0_0_13.x1.msky130_fd_pr__nfet_01v8#dbody)	voltage
	320	v(m.x1.xfiller_0_0_13.x1.msky130_fd_pr__nfet_01v8#body)	voltage
	321	v(m.x1.xfiller_0_0_13.x1.msky130_fd_pr__nfet_01v8#sbody)	voltage
	322	v(m.x1.xfiller_0_0_13.x0.msky130_fd_pr__pfet_01v8_hvt#dbody)	voltage
	323	v(m.x1.xfiller_0_0_13.x0.msky130_fd_pr__pfet_01v8_hvt#body)	voltage
	324	v(m.x1.xfiller_0_0_13.x0.msky130_fd_pr__pfet_01v8_hvt#sbody)	voltage
	325	v(m.x1.xfiller_0_3_45.x1.msky130_fd_pr__nfet_01v8#dbody)	voltage
	326	v(m.x1.xfiller_0_3_45.x1.msky130_fd_pr__nfet_01v8#body)	voltage
	327	v(m.x1.xfiller_0_3_45.x1.msky130_fd_pr__nfet_01v8#sbody)	voltage
	328	v(m.x1.xfiller_0_3_45.x0.msky130_fd_pr__pfet_01v8_hvt#dbody)	voltage
	329	v(m.x1.xfiller_0_3_45.x0.msky130_fd_pr__pfet_01v8_hvt#body)	voltage
	330	v(m.x1.xfiller_0_3_45.x0.msky130_fd_pr__pfet_01v8_hvt#sbody)	voltage
	331	v(m.x1.xfiller_0_0_34.x1.msky130_fd_pr__nfet_01v8#dbody)	voltage
	332	v(m.x1.xfiller_0_0_34.x1.msky130_fd_pr__nfet_01v8#body)	voltage
	333	v(m.x1.xfiller_0_0_34.x1.msky130_fd_pr__nfet_01v8#sbody)	voltage
	334	v(m.x1.xfiller_0_0_34.x0.msky130_fd_pr__pfet_01v8_hvt#dbody)	voltage
	335	v(m.x1.xfiller_0_0_34.x0.msky130_fd_pr__pfet_01v8_hvt#body)	voltage
	336	v(m.x1.xfiller_0_0_34.x0.msky130_fd_pr__pfet_01v8_hvt#sbody)	voltage
	337	v(m.x1.xphy_edge_row_7_right_7.x1.msky130_fd_pr__nfet_01v8#dbody)	voltage
	338	v(m.x1.xphy_edge_row_7_right_7.x1.msky130_fd_pr__nfet_01v8#body)	voltage
	339	v(m.x1.xphy_edge_row_7_right_7.x1.msky130_fd_pr__nfet_01v8#sbody)	voltage
	340	v(m.x1.xphy_edge_row_7_right_7.x0.msky130_fd_pr__pfet_01v8_hvt#dbody)	voltage
	341	v(m.x1.xphy_edge_row_7_right_7.x0.msky130_fd_pr__pfet_01v8_hvt#body)	voltage
	342	v(m.x1.xphy_edge_row_7_right_7.x0.msky130_fd_pr__pfet_01v8_hvt#sbody)	voltage
	343	v(m.x1.xth08_0.xxm3.x0.msky130_fd_pr__nfet_01v8#dbody)	voltage
	344	v(m.x1.xth08_0.xxm3.x0.msky130_fd_pr__nfet_01v8#body)	voltage
	345	v(m.x1.xth08_0.xxm3.x0.msky130_fd_pr__nfet_01v8#sbody)	voltage
	346	v(m.x1.xth08_0.xxm2.x0.msky130_fd_pr__pfet_01v8#dbody)	voltage
	347	v(m.x1.xth08_0.xxm2.x0.msky130_fd_pr__pfet_01v8#body)	voltage
	348	v(m.x1.xth08_0.xxm2.x0.msky130_fd_pr__pfet_01v8#sbody)	voltage
	349	v(m.x1.xth08_0.xxm1.x0.msky130_fd_pr__pfet_01v8#dbody)	voltage
	350	v(m.x1.xth08_0.xxm1.x0.msky130_fd_pr__pfet_01v8#body)	voltage
	351	v(m.x1.xth08_0.xxm1.x0.msky130_fd_pr__pfet_01v8#sbody)	voltage
	352	v(m.x1.xth08_0.xxm0.x0.msky130_fd_pr__nfet_01v8#dbody)	voltage
	353	v(m.x1.xth08_0.xxm0.x0.msky130_fd_pr__nfet_01v8#body)	voltage
	354	v(m.x1.xth08_0.xxm0.x0.msky130_fd_pr__nfet_01v8#sbody)	voltage
	355	v(m.x1.x_30_.x11.msky130_fd_pr__nfet_01v8#dbody)	voltage
	356	v(m.x1.x_30_.x11.msky130_fd_pr__nfet_01v8#body)	voltage
	357	v(m.x1.x_30_.x11.msky130_fd_pr__nfet_01v8#sbody)	voltage
	358	v(m.x1.x_30_.x10.msky130_fd_pr__nfet_01v8#dbody)	voltage
	359	v(m.x1.x_30_.x10.msky130_fd_pr__nfet_01v8#body)	voltage
	360	v(m.x1.x_30_.x10.msky130_fd_pr__nfet_01v8#sbody)	voltage
	361	v(m.x1.x_30_.x9.msky130_fd_pr__pfet_01v8_hvt#dbody)	voltage
	362	v(m.x1.x_30_.x9.msky130_fd_pr__pfet_01v8_hvt#body)	voltage
	363	v(m.x1.x_30_.x9.msky130_fd_pr__pfet_01v8_hvt#sbody)	voltage
	364	v(m.x1.x_30_.x8.msky130_fd_pr__pfet_01v8_hvt#dbody)	voltage
	365	v(m.x1.x_30_.x8.msky130_fd_pr__pfet_01v8_hvt#body)	voltage
	366	v(m.x1.x_30_.x8.msky130_fd_pr__pfet_01v8_hvt#sbody)	voltage
	367	v(m.x1.x_30_.x7.msky130_fd_pr__pfet_01v8_hvt#dbody)	voltage
	368	v(m.x1.x_30_.x7.msky130_fd_pr__pfet_01v8_hvt#body)	voltage
	369	v(m.x1.x_30_.x7.msky130_fd_pr__pfet_01v8_hvt#sbody)	voltage
	370	v(m.x1.x_30_.x6.msky130_fd_pr__nfet_01v8#dbody)	voltage
	371	v(m.x1.x_30_.x6.msky130_fd_pr__nfet_01v8#body)	voltage
	372	v(m.x1.x_30_.x6.msky130_fd_pr__nfet_01v8#sbody)	voltage
	373	v(m.x1.x_30_.x5.msky130_fd_pr__pfet_01v8_hvt#dbody)	voltage
	374	v(m.x1.x_30_.x5.msky130_fd_pr__pfet_01v8_hvt#body)	voltage
	375	v(m.x1.x_30_.x5.msky130_fd_pr__pfet_01v8_hvt#sbody)	voltage
	376	v(m.x1.x_30_.x4.msky130_fd_pr__pfet_01v8_hvt#dbody)	voltage
	377	v(m.x1.x_30_.x4.msky130_fd_pr__pfet_01v8_hvt#body)	voltage
	378	v(m.x1.x_30_.x4.msky130_fd_pr__pfet_01v8_hvt#sbody)	voltage
	379	v(m.x1.x_30_.x3.msky130_fd_pr__nfet_01v8#dbody)	voltage
	380	v(m.x1.x_30_.x3.msky130_fd_pr__nfet_01v8#body)	voltage
	381	v(m.x1.x_30_.x3.msky130_fd_pr__nfet_01v8#sbody)	voltage
	382	v(m.x1.x_30_.x2.msky130_fd_pr__nfet_01v8#dbody)	voltage
	383	v(m.x1.x_30_.x2.msky130_fd_pr__nfet_01v8#body)	voltage
	384	v(m.x1.x_30_.x2.msky130_fd_pr__nfet_01v8#sbody)	voltage
	385	v(m.x1.x_30_.x1.msky130_fd_pr__nfet_01v8#dbody)	voltage
	386	v(m.x1.x_30_.x1.msky130_fd_pr__nfet_01v8#body)	voltage
	387	v(m.x1.x_30_.x1.msky130_fd_pr__nfet_01v8#sbody)	voltage
	388	v(m.x1.x_30_.x0.msky130_fd_pr__pfet_01v8_hvt#dbody)	voltage
	389	v(m.x1.x_30_.x0.msky130_fd_pr__pfet_01v8_hvt#body)	voltage
	390	v(m.x1.x_30_.x0.msky130_fd_pr__pfet_01v8_hvt#sbody)	voltage
	391	v(m.x1.xth15_0.xxm4.x0.msky130_fd_pr__nfet_01v8#dbody)	voltage
	392	v(m.x1.xth15_0.xxm4.x0.msky130_fd_pr__nfet_01v8#body)	voltage
	393	v(m.x1.xth15_0.xxm4.x0.msky130_fd_pr__nfet_01v8#sbody)	voltage
	394	v(m.x1.xth15_0.xxm3.x0.msky130_fd_pr__pfet_01v8#dbody)	voltage
	395	v(m.x1.xth15_0.xxm3.x0.msky130_fd_pr__pfet_01v8#body)	voltage
	396	v(m.x1.xth15_0.xxm3.x0.msky130_fd_pr__pfet_01v8#sbody)	voltage
	397	v(m.x1.xth15_0.xxm2.x0.msky130_fd_pr__pfet_01v8#dbody)	voltage
	398	v(m.x1.xth15_0.xxm2.x0.msky130_fd_pr__pfet_01v8#body)	voltage
	399	v(m.x1.xth15_0.xxm2.x0.msky130_fd_pr__pfet_01v8#sbody)	voltage
	400	v(m.x1.xth15_0.xxm1.x0.msky130_fd_pr__nfet_01v8#dbody)	voltage
	401	v(m.x1.xth15_0.xxm1.x0.msky130_fd_pr__nfet_01v8#body)	voltage
	402	v(m.x1.xth15_0.xxm1.x0.msky130_fd_pr__nfet_01v8#sbody)	voltage
	403	v(m.x1.xth15_0.xxm0.x0.msky130_fd_pr__pfet_01v8#dbody)	voltage
	404	v(m.x1.xth15_0.xxm0.x0.msky130_fd_pr__pfet_01v8#body)	voltage
	405	v(m.x1.xth15_0.xxm0.x0.msky130_fd_pr__pfet_01v8#sbody)	voltage
	406	v(m.x1.x_31_.x9.msky130_fd_pr__nfet_01v8#dbody)	voltage
	407	v(m.x1.x_31_.x9.msky130_fd_pr__nfet_01v8#body)	voltage
	408	v(m.x1.x_31_.x9.msky130_fd_pr__nfet_01v8#sbody)	voltage
	409	v(m.x1.x_31_.x8.msky130_fd_pr__pfet_01v8_hvt#dbody)	voltage
	410	v(m.x1.x_31_.x8.msky130_fd_pr__pfet_01v8_hvt#body)	voltage
	411	v(m.x1.x_31_.x8.msky130_fd_pr__pfet_01v8_hvt#sbody)	voltage
	412	v(m.x1.x_31_.x7.msky130_fd_pr__pfet_01v8_hvt#dbody)	voltage
	413	v(m.x1.x_31_.x7.msky130_fd_pr__pfet_01v8_hvt#body)	voltage
	414	v(m.x1.x_31_.x7.msky130_fd_pr__pfet_01v8_hvt#sbody)	voltage
	415	v(m.x1.x_31_.x6.msky130_fd_pr__nfet_01v8#dbody)	voltage
	416	v(m.x1.x_31_.x6.msky130_fd_pr__nfet_01v8#body)	voltage
	417	v(m.x1.x_31_.x6.msky130_fd_pr__nfet_01v8#sbody)	voltage
	418	v(m.x1.x_31_.x5.msky130_fd_pr__nfet_01v8#dbody)	voltage
	419	v(m.x1.x_31_.x5.msky130_fd_pr__nfet_01v8#body)	voltage
	420	v(m.x1.x_31_.x5.msky130_fd_pr__nfet_01v8#sbody)	voltage
	421	v(m.x1.x_31_.x4.msky130_fd_pr__pfet_01v8_hvt#dbody)	voltage
	422	v(m.x1.x_31_.x4.msky130_fd_pr__pfet_01v8_hvt#body)	voltage
	423	v(m.x1.x_31_.x4.msky130_fd_pr__pfet_01v8_hvt#sbody)	voltage
	424	v(m.x1.x_31_.x3.msky130_fd_pr__pfet_01v8_hvt#dbody)	voltage
	425	v(m.x1.x_31_.x3.msky130_fd_pr__pfet_01v8_hvt#body)	voltage
	426	v(m.x1.x_31_.x3.msky130_fd_pr__pfet_01v8_hvt#sbody)	voltage
	427	v(m.x1.x_31_.x2.msky130_fd_pr__nfet_01v8#dbody)	voltage
	428	v(m.x1.x_31_.x2.msky130_fd_pr__nfet_01v8#body)	voltage
	429	v(m.x1.x_31_.x2.msky130_fd_pr__nfet_01v8#sbody)	voltage
	430	v(m.x1.x_31_.x1.msky130_fd_pr__nfet_01v8#dbody)	voltage
	431	v(m.x1.x_31_.x1.msky130_fd_pr__nfet_01v8#body)	voltage
	432	v(m.x1.x_31_.x1.msky130_fd_pr__nfet_01v8#sbody)	voltage
	433	v(m.x1.x_31_.x0.msky130_fd_pr__pfet_01v8_hvt#dbody)	voltage
	434	v(m.x1.x_31_.x0.msky130_fd_pr__pfet_01v8_hvt#body)	voltage
	435	v(m.x1.x_31_.x0.msky130_fd_pr__pfet_01v8_hvt#sbody)	voltage
	436	v(m.x1.xfiller_0_0_20.x1.msky130_fd_pr__nfet_01v8#dbody)	voltage
	437	v(m.x1.xfiller_0_0_20.x1.msky130_fd_pr__nfet_01v8#body)	voltage
	438	v(m.x1.xfiller_0_0_20.x1.msky130_fd_pr__nfet_01v8#sbody)	voltage
	439	v(m.x1.xfiller_0_0_20.x0.msky130_fd_pr__pfet_01v8_hvt#dbody)	voltage
	440	v(m.x1.xfiller_0_0_20.x0.msky130_fd_pr__pfet_01v8_hvt#body)	voltage
	441	v(m.x1.xfiller_0_0_20.x0.msky130_fd_pr__pfet_01v8_hvt#sbody)	voltage
	442	v(m.x1.xphy_edge_row_5_left_13.x1.msky130_fd_pr__nfet_01v8#dbody)	voltage
	443	v(m.x1.xphy_edge_row_5_left_13.x1.msky130_fd_pr__nfet_01v8#body)	voltage
	444	v(m.x1.xphy_edge_row_5_left_13.x1.msky130_fd_pr__nfet_01v8#sbody)	voltage
	445	v(m.x1.xphy_edge_row_5_left_13.x0.msky130_fd_pr__pfet_01v8_hvt#dbody)	voltage
	446	v(m.x1.xphy_edge_row_5_left_13.x0.msky130_fd_pr__pfet_01v8_hvt#body)	voltage
	447	v(m.x1.xphy_edge_row_5_left_13.x0.msky130_fd_pr__pfet_01v8_hvt#sbody)	voltage
	448	v(m.x1.x_32_.x9.msky130_fd_pr__nfet_01v8#dbody)	voltage
	449	v(m.x1.x_32_.x9.msky130_fd_pr__nfet_01v8#body)	voltage
	450	v(m.x1.x_32_.x9.msky130_fd_pr__nfet_01v8#sbody)	voltage
	451	v(m.x1.x_32_.x8.msky130_fd_pr__nfet_01v8#dbody)	voltage
	452	v(m.x1.x_32_.x8.msky130_fd_pr__nfet_01v8#body)	voltage
	453	v(m.x1.x_32_.x8.msky130_fd_pr__nfet_01v8#sbody)	voltage
	454	v(m.x1.x_32_.x7.msky130_fd_pr__pfet_01v8_hvt#dbody)	voltage
	455	v(m.x1.x_32_.x7.msky130_fd_pr__pfet_01v8_hvt#body)	voltage
	456	v(m.x1.x_32_.x7.msky130_fd_pr__pfet_01v8_hvt#sbody)	voltage
	457	v(m.x1.x_32_.x6.msky130_fd_pr__nfet_01v8#dbody)	voltage
	458	v(m.x1.x_32_.x6.msky130_fd_pr__nfet_01v8#body)	voltage
	459	v(m.x1.x_32_.x6.msky130_fd_pr__nfet_01v8#sbody)	voltage
	460	v(m.x1.x_32_.x5.msky130_fd_pr__pfet_01v8_hvt#dbody)	voltage
	461	v(m.x1.x_32_.x5.msky130_fd_pr__pfet_01v8_hvt#body)	voltage
	462	v(m.x1.x_32_.x5.msky130_fd_pr__pfet_01v8_hvt#sbody)	voltage
	463	v(m.x1.x_32_.x4.msky130_fd_pr__pfet_01v8_hvt#dbody)	voltage
	464	v(m.x1.x_32_.x4.msky130_fd_pr__pfet_01v8_hvt#body)	voltage
	465	v(m.x1.x_32_.x4.msky130_fd_pr__pfet_01v8_hvt#sbody)	voltage
	466	v(m.x1.x_32_.x3.msky130_fd_pr__nfet_01v8#dbody)	voltage
	467	v(m.x1.x_32_.x3.msky130_fd_pr__nfet_01v8#body)	voltage
	468	v(m.x1.x_32_.x3.msky130_fd_pr__nfet_01v8#sbody)	voltage
	469	v(m.x1.x_32_.x2.msky130_fd_pr__pfet_01v8_hvt#dbody)	voltage
	470	v(m.x1.x_32_.x2.msky130_fd_pr__pfet_01v8_hvt#body)	voltage
	471	v(m.x1.x_32_.x2.msky130_fd_pr__pfet_01v8_hvt#sbody)	voltage
	472	v(m.x1.x_32_.x1.msky130_fd_pr__nfet_01v8#dbody)	voltage
	473	v(m.x1.x_32_.x1.msky130_fd_pr__nfet_01v8#body)	voltage
	474	v(m.x1.x_32_.x1.msky130_fd_pr__nfet_01v8#sbody)	voltage
	475	v(m.x1.x_32_.x0.msky130_fd_pr__pfet_01v8_hvt#dbody)	voltage
	476	v(m.x1.x_32_.x0.msky130_fd_pr__pfet_01v8_hvt#body)	voltage
	477	v(m.x1.x_32_.x0.msky130_fd_pr__pfet_01v8_hvt#sbody)	voltage
	478	v(m.x1.xpreamp_0.xxm1.x0.msky130_fd_pr__nfet_01v8#dbody)	voltage
	479	v(m.x1.xpreamp_0.xxm1.x0.msky130_fd_pr__nfet_01v8#body)	voltage
	480	v(m.x1.xpreamp_0.xxm1.x0.msky130_fd_pr__nfet_01v8#sbody)	voltage
	481	v(m.x1.xpreamp_0.xxm0.x0.msky130_fd_pr__pfet_01v8#dbody)	voltage
	482	v(m.x1.xpreamp_0.xxm0.x0.msky130_fd_pr__pfet_01v8#body)	voltage
	483	v(m.x1.xpreamp_0.xxm0.x0.msky130_fd_pr__pfet_01v8#sbody)	voltage
	484	v(m.x1.xphy_edge_row_3_right_3.x1.msky130_fd_pr__nfet_01v8#dbody)	voltage
	485	v(m.x1.xphy_edge_row_3_right_3.x1.msky130_fd_pr__nfet_01v8#body)	voltage
	486	v(m.x1.xphy_edge_row_3_right_3.x1.msky130_fd_pr__nfet_01v8#sbody)	voltage
	487	v(m.x1.xphy_edge_row_3_right_3.x0.msky130_fd_pr__pfet_01v8_hvt#dbody)	voltage
	488	v(m.x1.xphy_edge_row_3_right_3.x0.msky130_fd_pr__pfet_01v8_hvt#body)	voltage
	489	v(m.x1.xphy_edge_row_3_right_3.x0.msky130_fd_pr__pfet_01v8_hvt#sbody)	voltage
	490	v(m.x1.x_50_.x13.msky130_fd_pr__pfet_01v8_hvt#dbody)	voltage
	491	v(m.x1.x_50_.x13.msky130_fd_pr__pfet_01v8_hvt#body)	voltage
	492	v(m.x1.x_50_.x13.msky130_fd_pr__pfet_01v8_hvt#sbody)	voltage
	493	v(m.x1.x_50_.x12.msky130_fd_pr__nfet_01v8#dbody)	voltage
	494	v(m.x1.x_50_.x12.msky130_fd_pr__nfet_01v8#body)	voltage
	495	v(m.x1.x_50_.x12.msky130_fd_pr__nfet_01v8#sbody)	voltage
	496	v(m.x1.x_50_.x11.msky130_fd_pr__nfet_01v8#dbody)	voltage
	497	v(m.x1.x_50_.x11.msky130_fd_pr__nfet_01v8#body)	voltage
	498	v(m.x1.x_50_.x11.msky130_fd_pr__nfet_01v8#sbody)	voltage
	499	v(m.x1.x_50_.x10.msky130_fd_pr__pfet_01v8_hvt#dbody)	voltage
	500	v(m.x1.x_50_.x10.msky130_fd_pr__pfet_01v8_hvt#body)	voltage
	501	v(m.x1.x_50_.x10.msky130_fd_pr__pfet_01v8_hvt#sbody)	voltage
	502	v(m.x1.x_50_.x9.msky130_fd_pr__pfet_01v8_hvt#dbody)	voltage
	503	v(m.x1.x_50_.x9.msky130_fd_pr__pfet_01v8_hvt#body)	voltage
	504	v(m.x1.x_50_.x9.msky130_fd_pr__pfet_01v8_hvt#sbody)	voltage
	505	v(m.x1.x_50_.x8.msky130_fd_pr__nfet_01v8#dbody)	voltage
	506	v(m.x1.x_50_.x8.msky130_fd_pr__nfet_01v8#body)	voltage
	507	v(m.x1.x_50_.x8.msky130_fd_pr__nfet_01v8#sbody)	voltage
	508	v(m.x1.x_50_.x7.msky130_fd_pr__nfet_01v8#dbody)	voltage
	509	v(m.x1.x_50_.x7.msky130_fd_pr__nfet_01v8#body)	voltage
	510	v(m.x1.x_50_.x7.msky130_fd_pr__nfet_01v8#sbody)	voltage
	511	v(m.x1.x_50_.x6.msky130_fd_pr__pfet_01v8_hvt#dbody)	voltage
	512	v(m.x1.x_50_.x6.msky130_fd_pr__pfet_01v8_hvt#body)	voltage
	513	v(m.x1.x_50_.x6.msky130_fd_pr__pfet_01v8_hvt#sbody)	voltage
	514	v(m.x1.x_50_.x5.msky130_fd_pr__nfet_01v8#dbody)	voltage
	515	v(m.x1.x_50_.x5.msky130_fd_pr__nfet_01v8#body)	voltage
	516	v(m.x1.x_50_.x5.msky130_fd_pr__nfet_01v8#sbody)	voltage
	517	v(m.x1.x_50_.x4.msky130_fd_pr__pfet_01v8_hvt#dbody)	voltage
	518	v(m.x1.x_50_.x4.msky130_fd_pr__pfet_01v8_hvt#body)	voltage
	519	v(m.x1.x_50_.x4.msky130_fd_pr__pfet_01v8_hvt#sbody)	voltage
	520	v(m.x1.x_50_.x3.msky130_fd_pr__pfet_01v8_hvt#dbody)	voltage
	521	v(m.x1.x_50_.x3.msky130_fd_pr__pfet_01v8_hvt#body)	voltage
	522	v(m.x1.x_50_.x3.msky130_fd_pr__pfet_01v8_hvt#sbody)	voltage
	523	v(m.x1.x_50_.x2.msky130_fd_pr__nfet_01v8#dbody)	voltage
	524	v(m.x1.x_50_.x2.msky130_fd_pr__nfet_01v8#body)	voltage
	525	v(m.x1.x_50_.x2.msky130_fd_pr__nfet_01v8#sbody)	voltage
	526	v(m.x1.x_50_.x1.msky130_fd_pr__nfet_01v8#dbody)	voltage
	527	v(m.x1.x_50_.x1.msky130_fd_pr__nfet_01v8#body)	voltage
	528	v(m.x1.x_50_.x1.msky130_fd_pr__nfet_01v8#sbody)	voltage
	529	v(m.x1.x_50_.x0.msky130_fd_pr__pfet_01v8_hvt#dbody)	voltage
	530	v(m.x1.x_50_.x0.msky130_fd_pr__pfet_01v8_hvt#body)	voltage
	531	v(m.x1.x_50_.x0.msky130_fd_pr__pfet_01v8_hvt#sbody)	voltage
	532	v(m.x1.x_33_.x9.msky130_fd_pr__nfet_01v8#dbody)	voltage
	533	v(m.x1.x_33_.x9.msky130_fd_pr__nfet_01v8#body)	voltage
	534	v(m.x1.x_33_.x9.msky130_fd_pr__nfet_01v8#sbody)	voltage
	535	v(m.x1.x_33_.x8.msky130_fd_pr__pfet_01v8_hvt#dbody)	voltage
	536	v(m.x1.x_33_.x8.msky130_fd_pr__pfet_01v8_hvt#body)	voltage
	537	v(m.x1.x_33_.x8.msky130_fd_pr__pfet_01v8_hvt#sbody)	voltage
	538	v(m.x1.x_33_.x7.msky130_fd_pr__pfet_01v8_hvt#dbody)	voltage
	539	v(m.x1.x_33_.x7.msky130_fd_pr__pfet_01v8_hvt#body)	voltage
	540	v(m.x1.x_33_.x7.msky130_fd_pr__pfet_01v8_hvt#sbody)	voltage
	541	v(m.x1.x_33_.x6.msky130_fd_pr__nfet_01v8#dbody)	voltage
	542	v(m.x1.x_33_.x6.msky130_fd_pr__nfet_01v8#body)	voltage
	543	v(m.x1.x_33_.x6.msky130_fd_pr__nfet_01v8#sbody)	voltage
	544	v(m.x1.x_33_.x5.msky130_fd_pr__nfet_01v8#dbody)	voltage
	545	v(m.x1.x_33_.x5.msky130_fd_pr__nfet_01v8#body)	voltage
	546	v(m.x1.x_33_.x5.msky130_fd_pr__nfet_01v8#sbody)	voltage
	547	v(m.x1.x_33_.x4.msky130_fd_pr__pfet_01v8_hvt#dbody)	voltage
	548	v(m.x1.x_33_.x4.msky130_fd_pr__pfet_01v8_hvt#body)	voltage
	549	v(m.x1.x_33_.x4.msky130_fd_pr__pfet_01v8_hvt#sbody)	voltage
	550	v(m.x1.x_33_.x3.msky130_fd_pr__nfet_01v8#dbody)	voltage
	551	v(m.x1.x_33_.x3.msky130_fd_pr__nfet_01v8#body)	voltage
	552	v(m.x1.x_33_.x3.msky130_fd_pr__nfet_01v8#sbody)	voltage
	553	v(m.x1.x_33_.x2.msky130_fd_pr__pfet_01v8_hvt#dbody)	voltage
	554	v(m.x1.x_33_.x2.msky130_fd_pr__pfet_01v8_hvt#body)	voltage
	555	v(m.x1.x_33_.x2.msky130_fd_pr__pfet_01v8_hvt#sbody)	voltage
	556	v(m.x1.x_33_.x1.msky130_fd_pr__pfet_01v8_hvt#dbody)	voltage
	557	v(m.x1.x_33_.x1.msky130_fd_pr__pfet_01v8_hvt#body)	voltage
	558	v(m.x1.x_33_.x1.msky130_fd_pr__pfet_01v8_hvt#sbody)	voltage
	559	v(m.x1.x_33_.x0.msky130_fd_pr__nfet_01v8#dbody)	voltage
	560	v(m.x1.x_33_.x0.msky130_fd_pr__nfet_01v8#body)	voltage
	561	v(m.x1.x_33_.x0.msky130_fd_pr__nfet_01v8#sbody)	voltage
	562	v(m.x1.x_34_.x9.msky130_fd_pr__nfet_01v8#dbody)	voltage
	563	v(m.x1.x_34_.x9.msky130_fd_pr__nfet_01v8#body)	voltage
	564	v(m.x1.x_34_.x9.msky130_fd_pr__nfet_01v8#sbody)	voltage
	565	v(m.x1.x_34_.x8.msky130_fd_pr__pfet_01v8_hvt#dbody)	voltage